#INFO: **** input file is /home/alec/Source/kelvin/examples/Diamond_ft_ccsd.py ****
import logging
import sys as csys
from kelvin.ccsd import ccsd
from kelvin.scf_system import SCFSystem
from pyscf.pbc import gto, scf

logging.basicConfig(
    format='%(message)s',
    level=logging.INFO,
    stream=csys.stdout)

T = 0.1
mu = 0.11
cell = gto.Cell()
cell.a = '''
0.000000000, 3.370137329, 3.370137329
3.370137329, 0.000000000, 3.370137329
3.370137329, 3.370137329, 0.000000000'''
cell.atom = '''
C 0.000000000000   0.000000000000   0.000000000000
C 1.685068664391   1.685068664391   1.685068664391
'''
cell.basis = 'gth-szv'
cell.pseudo = 'gth-pade'
cell.verbose = 4
cell.build()

mf = scf.RHF(cell, exxdiv=None)
mf.conv_tol_grad = 1e-8
mf.conv_tol = 1e-12
Escf = mf.kernel()
sys = SCFSystem(mf, T, mu)
ccsdT = ccsd(sys, iprint=1, max_iter=100, econv=1e-11, damp=0.0, T=T, mu=mu)
Etot, Ecc = ccsdT.run()
ccsdT.compute_ESN()
logging.info('N = {}'.format(ccsdT.N))
logging.info('E = {}'.format(ccsdT.E))
logging.info('S = {}'.format(ccsdT.S))
#INFO: ******************** input file end ********************


System: uname_result(system='Linux', node='alec-Precision-T1650', release='4.15.0-140-generic', version='#144-Ubuntu SMP Fri Mar 19 14:12:35 UTC 2021', machine='x86_64', processor='x86_64')  Threads 1
Python 3.8.5 | packaged by conda-forge | (default, Jul 24 2020, 01:25:15) 
[GCC 7.5.0]
numpy 1.18.5  scipy 1.5.0
Date: Wed May 19 17:24:24 2021
PySCF version 1.7.4
PySCF path  /home/alec/pyscf_pyscf/pyscf
GIT ORIG_HEAD ead2836c86bd0505ac851de9b644ed0f2ef93be0
GIT HEAD      ref: refs/heads/master
GIT master branch  3872975e1a47c942335e5cd3b742246f66c5efd0

[CONFIG] conf_file None
[INPUT] verbose = 4
[INPUT] num. atoms = 2
[INPUT] num. electrons = 8
[INPUT] charge = 0
[INPUT] spin (= nelec alpha-beta = 2S) = 0
[INPUT] symmetry False subgroup None
[INPUT] Mole.unit = angstrom
[INPUT]  1 C      0.000000000000   0.000000000000   0.000000000000 AA    0.000000000000   0.000000000000   0.000000000000 Bohr
[INPUT]  2 C      1.685068664391   1.685068664391   1.685068664391 AA    3.184318276786   3.184318276786   3.184318276786 Bohr

nuclear repulsion = -6.76665782781844
number of shells = 4
number of NR pGTOs = 32
number of NR cGTOs = 8
basis = gth-szv
ecp = {}
CPU time:         0.34
lattice vectors  a1 [0.000000000, 6.368636554, 6.368636554]
                 a2 [6.368636554, 0.000000000, 6.368636554]
                 a3 [6.368636554, 6.368636554, 0.000000000]
dimension = 3
low_dim_ft_type = None
Cell volume = 516.618
rcut = 19.79325867520138 (nimgs = [3 3 3])
lattice sum = 237 cells
precision = 1e-08
pseudo = gth-pade
ke_cutoff = 257.0619664735998
    = [54 54 54] mesh (157464 PWs)
ew_eta = 2.21047
ew_cut = 3.1354109134196464 (nimgs = [1 1 1])


******** <class 'pyscf.pbc.scf.hf.RHF'> ********
method = RHF-SCF-RHF
initial guess = minao
damping factor = 0
level_shift factor = 0
DIIS = <class 'pyscf.scf.diis.CDIIS'>
diis_start_cycle = 1
diis_space = 8
SCF conv_tol = 1e-12
SCF conv_tol_grad = 1e-08
SCF max_cycles = 50
direct_scf = False
chkfile to save SCF result = /home/alec/Source/kelvin/examples/tmpa6upg7ve
max_memory 4000 MB (current use 89 MB)
******** PBC SCF flags ********
kpt = [0. 0. 0.]
Exchange divergence treatment (exxdiv) = None
DF object = <pyscf.pbc.df.fft.FFTDF object at 0x7f3dca1fba90>


******** <class 'pyscf.pbc.df.fft.FFTDF'> ********
mesh = [54 54 54] (157464 PWs)
len(kpts) = 1
init E= -9.06862936024808

WARN: HOMO 0.133663218451052 == LUMO 0.13366321845113

cycle= 1 E= -9.07573866261769  delta_E= -0.00711  |g|= 0.0337  |ddm|= 2.27
  HOMO = 0.138431371704155  LUMO = 0.153675325417543
cycle= 2 E= -9.07720849762633  delta_E= -0.00147  |g|= 0.0109  |ddm|= 0.234
  HOMO = 0.137316537053571  LUMO = 0.153449454399512
cycle= 3 E= -9.07761767549062  delta_E= -0.000409  |g|= 0.00411  |ddm|= 0.121
  HOMO = 0.137127468299188  LUMO = 0.153401334074561
cycle= 4 E= -9.07789434469071  delta_E= -0.000277  |g|= 0.00448  |ddm|= 0.0961
  HOMO = 0.135505414398801  LUMO = 0.14608615405559
cycle= 5 E= -9.0765097529901  delta_E= 0.00138  |g|= 0.00903  |ddm|= 0.959
  HOMO = 0.136330566332227  LUMO = 0.15054203767963
cycle= 6 E= -9.07654546399139  delta_E= -3.57e-05  |g|= 0.00509  |ddm|= 0.0947
  HOMO = 0.138751269451759  LUMO = 0.153496483839643
cycle= 7 E= -9.07635615531251  delta_E= 0.000189  |g|= 0.0242  |ddm|= 0.314
  HOMO = 0.139767919014224  LUMO = 0.153275057707026
cycle= 8 E= -9.07695680311417  delta_E= -0.000601  |g|= 0.00537  |ddm|= 0.196
  HOMO = 0.139681665706625  LUMO = 0.153255926458509
cycle= 9 E= -9.07692075230004  delta_E= 3.61e-05  |g|= 0.00507  |ddm|= 0.0448
  HOMO = 0.139377795099792  LUMO = 0.152670361951394
cycle= 10 E= -9.07703459337854  delta_E= -0.000114  |g|= 0.00528  |ddm|= 0.237
  HOMO = 0.137274143652282  LUMO = 0.152928484134177
cycle= 11 E= -9.07686129965898  delta_E= 0.000173  |g|= 0.00261  |ddm|= 0.289
  HOMO = 0.138025924463778  LUMO = 0.152835271797067
cycle= 12 E= -9.07688680162846  delta_E= -2.55e-05  |g|= 0.0022  |ddm|= 0.0778
  HOMO = 0.137983071926534  LUMO = 0.152916181350444
cycle= 13 E= -9.07688295794245  delta_E= 3.84e-06  |g|= 0.00207  |ddm|= 0.0267
  HOMO = 0.138227964106643  LUMO = 0.152927974403313
cycle= 14 E= -9.07685950784044  delta_E= 2.35e-05  |g|= 0.0016  |ddm|= 0.0363
  HOMO = 0.137871032652492  LUMO = 0.153188956379276
cycle= 15 E= -9.07685668601093  delta_E= 2.82e-06  |g|= 0.00153  |ddm|= 0.0173
  HOMO = 0.137847998282251  LUMO = 0.15312659782893
cycle= 16 E= -9.07684185406393  delta_E= 1.48e-05  |g|= 0.00465  |ddm|= 0.0256
  HOMO = 0.137931868773382  LUMO = 0.153194219373805
cycle= 17 E= -9.07684812041174  delta_E= -6.27e-06  |g|= 0.00161  |ddm|= 0.0388
  HOMO = 0.13800101259146  LUMO = 0.153279448263422
cycle= 18 E= -9.07684476827178  delta_E= 3.35e-06  |g|= 0.000971  |ddm|= 0.0429
  HOMO = 0.138015629362833  LUMO = 0.153289708653096
cycle= 19 E= -9.07684763598852  delta_E= -2.87e-06  |g|= 0.0011  |ddm|= 0.00815
  HOMO = 0.138018355469863  LUMO = 0.153280995154486
cycle= 20 E= -9.0768467749988  delta_E= 8.61e-07  |g|= 0.000995  |ddm|= 0.00999
  HOMO = 0.138018025104606  LUMO = 0.153280912700784
cycle= 21 E= -9.07685708572002  delta_E= -1.03e-05  |g|= 0.000828  |ddm|= 0.0483
  HOMO = 0.138025013286916  LUMO = 0.153271957020404
cycle= 22 E= -9.07687503989414  delta_E= -1.8e-05  |g|= 0.000895  |ddm|= 0.0575
  HOMO = 0.138021777528398  LUMO = 0.15328135653304
cycle= 23 E= -9.07689384837004  delta_E= -1.88e-05  |g|= 0.00184  |ddm|= 0.0241
  HOMO = 0.138045473360114  LUMO = 0.153290997567383
cycle= 24 E= -9.07687111329762  delta_E= 2.27e-05  |g|= 0.00095  |ddm|= 0.0564
  HOMO = 0.138043337827666  LUMO = 0.153250925076101
cycle= 25 E= -9.0768740087232  delta_E= -2.9e-06  |g|= 0.000267  |ddm|= 0.0379
  HOMO = 0.138036290513666  LUMO = 0.153268852085861
cycle= 26 E= -9.07687341967763  delta_E= 5.89e-07  |g|= 0.000703  |ddm|= 0.0311
  HOMO = 0.138035249327092  LUMO = 0.1532506303366
cycle= 27 E= -9.07687387976851  delta_E= -4.6e-07  |g|= 0.000254  |ddm|= 0.0112
  HOMO = 0.138032469797797  LUMO = 0.153301802592141
cycle= 28 E= -9.07687381253626  delta_E= 6.72e-08  |g|= 0.000149  |ddm|= 0.00912
  HOMO = 0.138032027167449  LUMO = 0.153301079742787
cycle= 29 E= -9.07687386483481  delta_E= -5.23e-08  |g|= 0.000184  |ddm|= 0.00131
  HOMO = 0.138033827054741  LUMO = 0.153286247708885
cycle= 30 E= -9.07687380250974  delta_E= 6.23e-08  |g|= 3.91e-05  |ddm|= 0.0051
  HOMO = 0.138034246779039  LUMO = 0.153279163555036
cycle= 31 E= -9.07687381893115  delta_E= -1.64e-08  |g|= 5.64e-06  |ddm|= 0.0041
  HOMO = 0.138034193707142  LUMO = 0.153279483555691
cycle= 32 E= -9.07687381992856  delta_E= -9.97e-10  |g|= 1.34e-06  |ddm|= 0.000913
  HOMO = 0.138034215990495  LUMO = 0.153279660527999
cycle= 33 E= -9.07687382000475  delta_E= -7.62e-11  |g|= 7.96e-06  |ddm|= 6.58e-05
  HOMO = 0.138034225758786  LUMO = 0.153279699938268
cycle= 34 E= -9.07687381993316  delta_E= 7.16e-11  |g|= 7.86e-06  |ddm|= 5.89e-05
  HOMO = 0.138034218632052  LUMO = 0.153279691322646
cycle= 35 E= -9.07687381992955  delta_E= 3.62e-12  |g|= 7.6e-07  |ddm|= 5.85e-05
  HOMO = 0.138034218838185  LUMO = 0.153279696179068
cycle= 36 E= -9.07687381993032  delta_E= -7.71e-13  |g|= 4.22e-07  |ddm|= 3.37e-05
  HOMO = 0.138034216278997  LUMO = 0.153279687134768
cycle= 37 E= -9.07687381992996  delta_E= 3.55e-13  |g|= 3.43e-07  |ddm|= 1.36e-05
  HOMO = 0.138034216852564  LUMO = 0.1532796867484
cycle= 38 E= -9.07687381992983  delta_E= 1.3e-13  |g|= 1.39e-07  |ddm|= 3.69e-06
  HOMO = 0.138034217429084  LUMO = 0.15327968561185
cycle= 39 E= -9.07687381992978  delta_E= 5.33e-14  |g|= 6.87e-08  |ddm|= 2.75e-06
  HOMO = 0.138034216936885  LUMO = 0.153279685454213
cycle= 40 E= -9.07687381992978  delta_E= -1.78e-15  |g|= 9.28e-08  |ddm|= 1.18e-06
  HOMO = 0.138034216777444  LUMO = 0.153279685410805
cycle= 41 E= -9.07687381992979  delta_E= -7.11e-15  |g|= 8.91e-08  |ddm|= 3.88e-07
  HOMO = 0.138034216772219  LUMO = 0.15327968540969
cycle= 42 E= -9.0768738199298  delta_E= -1.42e-14  |g|= 1.68e-07  |ddm|= 1.09e-06
  HOMO = 0.138034216662653  LUMO = 0.153279685381414
cycle= 43 E= -9.07687381992952  delta_E= 2.84e-13  |g|= 9.54e-07  |ddm|= 3.84e-06
  HOMO = 0.138034216754333  LUMO = 0.153279685405275
cycle= 44 E= -9.07687381992995  delta_E= -4.33e-13  |g|= 3.27e-07  |ddm|= 2.59e-06
  HOMO = 0.138034216717452  LUMO = 0.153279685395419
cycle= 45 E= -9.07687381992988  delta_E= 6.93e-14  |g|= 7.11e-08  |ddm|= 4.13e-06
  HOMO = 0.138034216694241  LUMO = 0.153279685389251
cycle= 46 E= -9.07687381992994  delta_E= -5.86e-14  |g|= 1.13e-07  |ddm|= 1.3e-06
  HOMO = 0.138034216680146  LUMO = 0.153279685385503
cycle= 47 E= -9.07687381993038  delta_E= -4.35e-13  |g|= 4.73e-07  |ddm|= 4.49e-06
  HOMO = 0.13803421670473  LUMO = 0.153279685392003
cycle= 48 E= -9.07687381992987  delta_E= 5.06e-13  |g|= 8.45e-08  |ddm|= 5.76e-06
  HOMO = 0.138034216711551  LUMO = 0.153279685393819
cycle= 49 E= -9.07687381992988  delta_E= -7.11e-15  |g|= 7.69e-08  |ddm|= 3.77e-07
  HOMO = 0.13803421671828  LUMO = 0.153279685395651
cycle= 50 E= -9.07687381992999  delta_E= -1.17e-13  |g|= 1e-07  |ddm|= 3.09e-06
SCF not converged.
SCF energy = -9.07687381992999
Running CCSD at an electronic temperature of 31577.512891 K
MP2 Energy: -0.4256485773
  1  0.0358119892   3.2269E+00
  2  -0.4244767305   5.5252E+00
  3  -0.0852425212   2.6281E+00
  4  -0.2986231444   4.1492E+00
  5  -0.1482411356   1.7460E+00
  6  -0.2398870926   1.9567E+00
  7  -0.1874090820   7.9257E-01
  8  -0.2127693780   5.2869E-01
  9  -0.2009085173   2.3009E-01
 10  -0.2058298894   1.1201E-01
 11  -0.2038763092   4.5788E-02
 12  -0.2045998265   1.8384E-02
 13  -0.2043427313   6.8327E-03
 14  -0.2044303487   2.4447E-03
 15  -0.2044014309   8.3781E-04
 16  -0.2044107096   2.7804E-04
 17  -0.2044078014   8.9648E-05
 18  -0.2044086949   2.8222E-05
 19  -0.2044084249   8.7037E-06
 20  -0.2044085053   2.6381E-06
 21  -0.2044084817   7.8793E-07
 22  -0.2044084886   2.3244E-07
 23  -0.2044084866   6.7860E-08
 24  -0.2044084871   1.9640E-08
 25  -0.2044084870   5.6435E-09
 26  -0.2044084870   1.6121E-09
 27  -0.2044084870   4.5825E-10
 28  -0.2044084870   1.2975E-10
Total CCSD time: 3.9269 s
  1  6.6806605371
  2  4.2611883814
  3  2.2471770604
  4  3.1442365473
  5  2.0567233505
  6  2.3856197041
  7  1.5441347118
  8  1.3759160791
  9  0.7914777835
 10  0.4535326086
 11  0.2089035077
 12  0.0898982265
 13  0.0356632275
 14  0.0134416871
 15  0.0048295951
 16  0.0016687106
 17  0.0005573108
 18  0.0001808289
 19  0.0000572396
 20  0.0000177405
 21  0.0000054006
 22  0.0000016192
 23  0.0000004792
 24  0.0000001403
 25  0.0000000407
 26  0.0000000117
 27  0.0000000034
Total CCSD Lambda time: 9.049997 s
RDM construction time: 0.2850809097290039 s
Total derivative time: 33.235774993896484 s
N = 8.102070832832405
E = -9.09520869559069
S = 8.34450799034389
